<?xml version="1.0"?>
<VTKFile type="UnstructuredGrid"  version="0.1"  >
<UnstructuredGrid>
<Piece  NumberOfPoints="223" NumberOfCells="598">
<Points>
<DataArray  type="Float32"  NumberOfComponents="3"  format="ascii">-0.0001 0.0001 -0.0001  -0.0001 -5e-05 -0.0001  -0.0001 -5e-05 -5e-05  -0.0001 -0.0001 0.0001  -0.0001 -0.0001 -5e-05  9.99999e-05 -0.0001 -0.0001  -5e-05 -0.0001 -5e-05  -5e-05 -0.0001 -0.0001  0.0001 0.0001 0.0001  -0.0001 0.0001 0.0001  0.0001 -0.0001 0.0001  0.0001 0.0001 -0.0001  -5e-05 -5e-05 -5e-05  -5e-05 -5e-05 -0.0001  0 0.0001 -0.0001  2.5e-05 -0.0001 -7.5e-05  -0.0001 0 0.0001  0.0001 0 0.0001  0 0.0001 0.0001  -0.0001 -5e-05 -7.5e-05  -0.0001 0.0001 0  -0 -0.0001 0.0001  2.5e-05 -0.0001 -0.0001  -5e-05 -5e-05 -7.5e-05  -7.5e-05 -0.0001 -5e-05  -7.5e-05 -5e-05 -5e-05  0.0001 -0.0001 0  -0.0001 -7.5e-05 -5e-05  -5e-05 -7.5e-05 -5e-05  2.5e-05 2.5e-05 -0.0001  -7.5e-05 -5e-05 -0.0001  -0.0001 2.5e-05 -7.5e-05  -5e-05 -0.0001 -7.5e-05  -0.0001 -7.5e-05 2.5e-05  -5e-05 -7.5e-05 -0.0001  -0.0001 -0.0001 2.5e-05  -7.5e-05 -0.0001 2.5e-05  -0.0001 2.5e-05 -0.0001  0.0001 0.0001 0  0.0001 -1e-10 -0.0001  0 0 0.0001  0.0001 -0 0  -0.0001 1.25e-05 1.25e-05  0 0.0001 0  1.25e-05 -0.0001 1.25e-05  -7.5e-05 -5e-05 -7.5e-05  2.5e-05 -3.75e-05 -0.0001  -3.75e-05 2.5e-05 -0.0001  -5e-05 -7.5e-05 -7.5e-05  -7.5e-05 -7.5e-05 -5e-05  -5e-05 0.0001 -0.0001  5e-05 0.0001 -0.0001  6.24999e-05 -0.0001 -8.75e-05  -1.25e-05 -0.0001 -6.25e-05  -0.0001 -5e-05 0.0001  -0.0001 5e-05 0.0001  0.0001 5e-05 0.0001  0.0001 -5e-05 0.0001  5e-05 0.0001 0.0001  -5e-05 0.0001 0.0001  -0.0001 -5e-05 -8.75e-05  -0.0001 -5e-05 -6.25e-05  -0.0001 0.0001 -5e-05  -0.0001 0.0001 5e-05  -5e-05 -0.0001 0.0001  5e-05 -0.0001 0.0001  6.24999e-05 -0.0001 -0.0001  -1.25e-05 -0.0001 -0.0001  -5e-05 -5e-05 -6.25e-05  -5e-05 -5e-05 -8.75e-05  -8.75e-05 -0.0001 -5e-05  -6.25e-05 -0.0001 -5e-05  -8.75e-05 -5e-05 -5e-05  -6.25e-05 -5e-05 -5e-05  9.99999e-05 -0.0001 -5e-05  0.0001 -0.0001 5e-05  -0.0001 -6.25e-05 -5e-05  -0.0001 -8.75e-05 -5e-05  -5e-05 -8.75e-05 -5e-05  -5e-05 -6.25e-05 -5e-05  6.25e-05 6.25e-05 -0.0001  -1.25e-05 -1.25e-05 -0.0001  -8.75e-05 -5e-05 -0.0001  -6.25e-05 -5e-05 -0.0001  -0.0001 6.25e-05 -8.75e-05  -0.0001 -1.25e-05 -6.25e-05  -5e-05 -0.0001 -6.25e-05  -5e-05 -0.0001 -8.75e-05  -0.0001 -6.25e-05 -1.25e-05  -0.0001 -8.75e-05 6.25e-05  -5e-05 -8.75e-05 -0.0001  -5e-05 -6.25e-05 -0.0001  -0.0001 -0.0001 6.25e-05  -0.0001 -0.0001 -1.25e-05  -8.75e-05 -0.0001 6.25e-05  -6.25e-05 -0.0001 -1.25e-05  -0.0001 6.25e-05 -0.0001  -0.0001 -1.25e-05 -0.0001  0.0001 0.0001 5e-05  0.0001 0.0001 -5e-05  0.0001 -5.00001e-05 -0.0001  0.0001 4.99999e-05 -0.0001  -0.0001 2.5e-05 -8.75e-05  -0.0001 -1.25e-05 -8.75e-05  -0.0001 -1.25e-05 -7.5e-05  -0.0001 -8.75e-05 2.5e-05  -0.0001 -7.5e-05 -1.25e-05  -0.0001 -8.75e-05 -1.25e-05  2.5e-05 -0.0001 -8.75e-05  -1.25e-05 -0.0001 -7.5e-05  -1.25e-05 -0.0001 -8.75e-05  -8.75e-05 -0.0001 2.5e-05  -8.75e-05 -0.0001 -1.25e-05  -7.5e-05 -0.0001 -1.25e-05  -5e-05 0 0.0001  0 5e-05 0.0001  5e-05 0 0.0001  -0 -5e-05 0.0001  0.0001 -5e-05 0  0.0001 -0 5e-05  0.0001 5e-05 0  0.0001 -0 -5e-05  -0.0001 -3.125e-05 1.875e-05  -0.0001 1.875e-05 -3.125e-05  -0.0001 5.625e-05 6.25e-06  -0.0001 6.25e-06 5.625e-05  -5e-05 0.0001 0  0 0.0001 -5e-05  5e-05 0.0001 0  0 0.0001 5e-05  -3.125e-05 -0.0001 1.875e-05  6.25e-06 -0.0001 5.625e-05  5.625e-05 -0.0001 6.25e-06  1.875e-05 -0.0001 -3.125e-05  -8.75e-05 -5e-05 -7.5e-05  -7.5e-05 -5e-05 -6.25e-05  -6.25e-05 -5e-05 -7.5e-05  -7.5e-05 -5e-05 -8.75e-05  -1.25e-05 -5.625e-05 -0.0001  2.5e-05 -6.875e-05 -0.0001  6.25e-05 -1.875e-05 -0.0001  2.5e-05 -6.25e-06 -0.0001  -1.875e-05 6.25e-05 -0.0001  -6.875e-05 2.5e-05 -0.0001  -5.625e-05 -1.25e-05 -0.0001  -6.25e-06 2.5e-05 -0.0001  -5e-05 -8.75e-05 -7.5e-05  -5e-05 -7.5e-05 -8.75e-05  -5e-05 -6.25e-05 -7.5e-05  -5e-05 -7.5e-05 -6.25e-05  -7.5e-05 -6.25e-05 -5e-05  -8.75e-05 -7.5e-05 -5e-05  -7.5e-05 -8.75e-05 -5e-05  -6.25e-05 -7.5e-05 -5e-05  -5e-05 5e-05 0.0001  5e-05 5e-05 0.0001  -5e-05 -5e-05 0.0001  5e-05 -5e-05 0.0001  0.0001 -5e-05 5e-05  0.0001 5e-05 5e-05  0.0001 -5e-05 -5e-05  0.0001 5e-05 -5e-05  -0.0001 -2.1875e-05 -2.1875e-05  -0.0001 5.9375e-05 -4.0625e-05  -0.0001 -4.0625e-05 5.9375e-05  -0.0001 5.3125e-05 5.3125e-05  -5e-05 0.0001 -5e-05  5e-05 0.0001 -5e-05  -5e-05 0.0001 5e-05  5e-05 0.0001 5e-05  -4.0625e-05 -0.0001 5.9375e-05  5.3125e-05 -0.0001 5.3125e-05  -2.1875e-05 -0.0001 -2.1875e-05  5.9375e-05 -0.0001 -4.0625e-05  -8.75e-05 -5e-05 -6.25e-05  -6.25e-05 -5e-05 -6.25e-05  -8.75e-05 -5e-05 -8.75e-05  -6.25e-05 -5e-05 -8.75e-05  -1.25e-05 -7.8125e-05 -0.0001  6.25e-05 -5.9375e-05 -0.0001  -1.25e-05 -3.4375e-05 -0.0001  6.25e-05 2.1875e-05 -0.0001  -5.9375e-05 6.25e-05 -0.0001  -7.8125e-05 -1.25e-05 -0.0001  2.1875e-05 6.25e-05 -0.0001  -3.4375e-05 -1.25e-05 -0.0001  -5e-05 -8.75e-05 -8.75e-05  -5e-05 -6.25e-05 -8.75e-05  -5e-05 -8.75e-05 -6.25e-05  -5e-05 -6.25e-05 -6.25e-05  -8.75e-05 -6.25e-05 -5e-05  -8.75e-05 -8.75e-05 -5e-05  -6.25e-05 -6.25e-05 -5e-05  -6.25e-05 -8.75e-05 -5e-05  -4.53125e-05 -4.9479e-06 -5.625e-05  -3.5026e-05 -5.625e-05 -3.5156e-06  -4.9479e-06 -4.53125e-05 -5.625e-05  -5.625e-05 -2.17223e-05 -1.81105e-05  -6.875e-05 -6.875e-05 6.25e-06  -1.94077e-05 -6.875e-05 -3.58007e-05  -7.36527e-05 6.25e-06 -6.875e-05  6.25e-06 -7.36527e-05 -6.875e-05  -6.40024e-05 -6.40024e-05 6.18389e-05  -2.81979e-05 -2.81979e-05 -6.875e-05  -6.875e-05 -2.07674e-05 -4.56021e-05  -6.04674e-05 -5.625e-05 -2.02603e-05  -2.17477e-05 -6.875e-05 -7.42231e-05  4.76562e-05 -7.96875e-05 -0.0001  -4.45312e-05 -0.0001 -2.73438e-05  -7.5e-05 0.0001 -0.0001  -7.96875e-05 4.76562e-05 -0.0001  9.375e-06 3.24034e-05 -3.14176e-05  -5.625e-05 -2.297e-05 -7.42987e-05  -0.0001 -0.0001 4.375e-05  -6.48438e-05 -0.0001 4.92188e-05  -0.0001 -6.48438e-05 4.92188e-05  -0.0001 -4.45312e-05 -2.73438e-05  -8.125e-05 -8.125e-05 4.18599e-05  -6.875e-05 -7.94762e-05 -2.59008e-05  -6.25e-05 8.32031e-05 -0.0001  -0.0001 8.125e-05 -0.0001  -7.96875e-05 6.89762e-05 -0.0001  -2.99479e-05 -6.71875e-05 -0.0001  </DataArray>
</Points>
<Cells>
<DataArray  type="UInt32"  Name="connectivity"  format="ascii">107 112 198 218  14 127 167 184  38 98 159 169  8 98 159 169  25 135 175 204  29 145 184 211  127 167 184 211  12 195 196 197  34 90 186 222  34 147 186 222  17 116 119 159  42 122 125 202  65 131 157 171  45 177 183 212  12 73 197 204  10 65 157 171  45 104 174 212  21 117 131 157  163 166 182 221  42 154 165 168  44 130 172 195  9 63 165 168  69 144 177 212  121 141 181 211  23 136 177 212  26 75 132 158  18 115 154 168  127 142 184 211  11 80 101 161  55 125 154 165  38 120 128 167  14 51 167 184  88 190 205 218  194 200 204 212  105 111 213 217  12 79 195 199  10 157 158 171  150 192 205 218  84 163 210 221  47 143 144 194  28 153 192 218  90 110 178 186  88 198 205 218  69 144 185 203  48 146 188 206  51 80 167 184  25 73 197 205  33 105 107 198  12 73 175 204  17 116 155 159  89 202 215 217  31 84 102 210  23 69 203 212  2 61 85 174  38 99 161 167  75 132 158 171  32 109 110 146  121 140 141 160  43 126 166 211  130 172 195 208  23 68 203 206  121 140 141 181  107 151 191 218  17 56 155 159  18 115 129 169  46 138 180 203  23 148 189 206  43 127 166 211  39 121 140 160  8 56 155 159  101 121 161 181  17 116 157 158  38 120 161 167  23 68 175 212  89 94 213 217  9 154 165 168  69 144 203 212  12 195 197 205  85 123 200 204  46 81 141 203  8 58 155 169  26 118 132 173  53 133 196 199  39 101 121 181  103 104 200 212  32 53 109 146  24 70 112 191  163 182 200 210  25 88 197 216  22 108 139 178  45 103 104 212  45 137 177 183  68 175 204 212  17 57 157 158  80 101 161 181  21 65 131 157  22 67 110 178  17 116 119 158  100 140 160 179  42 114 125 202  28 192 205 218  29 80 184 211  39 121 140 181  26 118 132 158  109 110 146 206  29 141 181 211  49 150 190 218  44 118 132 158  117 130 131 195  44 132 158 171  139 179 201 207  46 141 196 203  44 157 158 171  44 131 157 171  110 178 186 206  123 194 200 204  141 160 196 211  3 89 94 202  85 200 204 212  26 118 160 173  42 122 197 202  25 73 192 205  24 71 193 218  39 100 140 160  23 69 177 212  24 71 95 218  28 153 193 218  150 190 205 218  95 195 208 218  144 183 200 212  144 194 200 212  62 166 209 221  49 150 192 218  18 59 154 168  18 58 155 169  18 115 155 169  95 130 195 208  6 78 193 208  24 112 191 218  11 51 80 167  10 75 158 171  8 155 159 169  103 183 200 212  28 78 193 208  74 160 173 179  45 103 176 183  26 74 160 173  117 130 170 202  144 177 183 212  44 118 158 195  29 80 181 211  118 132 133 173  37 102 143 210  4 77 107 191  15 108 201 207  82 103 176 183  7 67 90 110  13 69 138 180  74 100 160 179  2 72 162 174  122 162 197 216  5 74 100 179  25 88 190 216  28 149 188 206  47 142 182 211  144 194 203 212  195 198 205 218  28 79 189 206  42 124 168 211  28 79 199 206  198 202 215 217  27 88 106 151  54 164 202 215  12 79 199 206  123 194 197 211  13 69 144 185  144 185 194 203  5 52 66 179  118 158 195 211  36 111 112 198  49 152 193 218  48 146 186 206  88 122 197 216  28 149 189 206  49 152 191 218  166 182 219 221  15 109 110 201  12 68 196 206  13 69 180 185  14 127 142 184  122 198 202 215  3 64 156 202  48 148 189 206  80 167 184 211  21 117 156 170  6 53 86 188  4 93 107 112  41 119 159 211  45 136 175 212  128 159 169 211  12 194 197 204  50 142 166 219  126 163 166 211  19 104 134 174  163 182 210 221  30 82 176 183  80 161 167 211  30 137 177 183  6 71 193 208  130 195 198 202  117 156 170 202  45 137 176 183  49 151 191 218  32 53 86 188  12 196 199 206  3 89 92 94  68 196 203 206  22 108 110 178  42 114 197 202  2 85 162 174  114 195 197 202  42 114 197 211  135 174 204 212  147 186 206 222  53 188 199 206  85 162 174 204  40 116 155 211  32 110 146 186  45 103 104 134  116 155 159 211  88 106 198 218  121 141 160 211  19 85 104 174  46 139 179 196  115 154 168 211  114 195 197 211  23 69 187 206  108 139 201 207  120 128 159 211  198 202 214 217  42 123 197 211  23 68 203 212  142 145 184 211  88 106 151 218  115 129 169 211  95 195 198 218  40 114 154 211  172 195 199 208  12 195 196 199  22 108 139 207  138 196 203 206  163 182 194 200  37 102 103 183  32 87 110 186  27 107 151 191  41 120 159 211  27 106 107 151  25 73 197 204  163 182 194 211  36 112 113 198  81 180 185 203  40 117 156 202  109 110 201 206  12 68 189 206  81 141 145 194  44 133 196 199  111 198 214 217  120 161 167 211  15 108 110 201  4 70 112 191  15 53 109 201  108 110 178 201  160 173 179 196  88 122 197 198  34 147 187 222  88 197 198 205  105 107 112 198  141 145 194 211  40 114 195 211  30 137 176 183  25 72 190 216  42 154 168 211  48 147 187 206  45 135 174 212  21 64 156 170  46 138 139 196  54 89 202 215  25 72 162 216  114 156 164 202  108 139 178 201  43 129 169 211  13 83 144 177  16 114 156 164  147 187 206 222  124 126 163 211  47 182 194 211  173 179 196 201  45 103 183 212  2 72 190 216  135 175 204 212  138 139 178 201  15 52 108 207  4 107 112 191  16 54 156 164  141 194 196 203  36 130 198 214  64 170 202 214  54 156 164 202  110 178 201 206  67 90 110 178  42 122 162 197  50 166 209 219  69 138 206 222  48 149 188 206  36 95 113 198  46 81 180 203  16 114 125 154  47 81 145 194  13 69 144 177  43 129 168 211  10 57 157 158  116 119 158 211  130 198 202 214  120 128 167 211  24 112 113 218  84 96 220 221  82 97 103 183  13 69 138 222  19 61 85 174  142 166 182 219  27 77 107 191  27 88 151 190  12 68 175 204  118 160 173 196  141 194 196 211  48 147 186 206  85 174 204 212  12 68 194 196  105 198 215 217  11 99 161 167  105 213 215 217  29 141 145 211  36 111 198 214  105 111 112 198  25 162 197 216  89 94 202 217  25 150 190 205  47 81 185 194  116 158 195 211  24 95 113 218  130 170 202 214  123 124 163 211  106 107 151 218  47 144 185 194  12 79 192 205  53 133 196 201  114 125 164 202  117 131 157 195  76 88 190 216  22 52 66 207  35 105 111 112  163 166 182 211  32 53 146 188  123 163 194 211  46 140 160 179  27 76 88 190  40 115 155 211  115 155 169 211  81 141 194 203  12 194 196 197  6 78 199 208  15 173 201 207  85 104 174 212  123 194 197 204  118 133 173 196  12 79 189 206  7 87 110 186  118 195 196 211  3 64 94 202  122 164 202 215  28 78 199 208  42 123 162 197  40 114 156 202  133 173 196 201  124 126 168 211  49 151 190 218  121 161 181 211  38 128 159 169  107 112 191 218  127 142 166 211  6 172 199 208  15 53 133 201  45 104 134 174  49 153 193 218  5 52 74 179  123 163 194 200  31 85 104 200  9 59 154 168  45 135 175 212  18 115 129 168  122 197 198 202  40 117 157 195  138 178 206 222  90 178 186 222  34 91 187 222  139 179 196 201  44 118 195 196  3 54 156 202  138 196 201 206  25 150 192 205  28 79 195 199  53 133 172 199  37 97 103 183  24 152 191 218  23 68 189 206  46 140 141 160  52 74 173 179  123 162 197 204  33 106 107 198  31 84 163 210  155 159 169 211  28 195 208 218  47 142 145 211  49 153 192 218  69 187 206 222  68 194 196 203  45 103 134 176  13 91 187 222  44 130 131 195  116 119 159 211  62 163 166 221  23 69 203 206  71 193 208 218  2 76 190 216  80 161 181 211  94 202 214 217  143 144 194 200  25 88 197 205  12 68 194 204  47 145 194 211  94 213 214 217  122 125 164 202  48 148 187 206  89 213 215 217  68 194 204 212  85 104 200 212  40 116 157 195  36 95 130 198  68 194 203 212  22 52 108 207  46 141 160 196  46 160 179 196  53 196 201 206  95 130 195 198  118 160 196 211  88 151 190 218  41 118 160 211  110 146 186 206  53 196 199 206  115 129 168 211  102 143 183 200  41 121 160 211  143 182 200 210  31 163 200 210  37 84 102 210  62 209 220 221  6 53 172 199  41 118 158 211  25 73 175 204  71 95 208 218  85 123 162 204  28 193 208 218  62 84 163 221  28 188 199 206  178 186 206 222  40 114 195 202  2 72 162 216  25 88 190 205  14 50 142 166  30 83 177 183  83 144 177 183  28 79 192 205  1 60 103 176  19 60 103 176  1 82 103 176  1 82 97 103  19 103 134 176  19 103 104 134  23 136 175 212  9 55 154 165  102 143 200 210  42 124 165 168  37 84 96 210  143 182 194 200  25 162 174 204  42 114 125 154  142 166 182 211  41 119 158 211  20 124 126 168  53 146 188 206  105 111 198 217  45 136 177 212  62 84 220 221  31 85 123 200  44 131 157 195  20 126 163 166  41 120 161 211  16 55 125 154  6 78 188 199  53 109 201 206  35 93 107 112  84 96 210 221  6 53 188 199  33 88 122 198  195 196 197 211  42 114 154 211  53 109 146 206  28 195 205 218  20 63 124 168  15 133 173 201  24 152 193 218  20 124 126 163  166 209 219 221  33 88 106 198  194 196 197 211  138 178 201 206  41 121 161 211  173 179 201 207  15 52 173 207  42 125 154 165  117 130 195 202  102 103 183 200  14 127 142 166  43 128 169 211  112 113 198 218  31 102 200 210  111 213 214 217  44 157 158 195  63 124 165 168  20 62 163 166  13 69 187 222  37 102 143 183  116 157 158 195  31 123 163 200  52 173 179 207  195 197 198 202  195 197 198 205  44 118 133 196  44 195 196 199  64 156 170 202  11 80 161 167  12 73 197 205  7 90 110 186  44 172 195 199  138 139 196 201  33 105 198 215  81 185 194 203  43 126 168 211  48 149 189 206  40 115 154 211  0 62 209 220  16 114 125 164  43 127 167 211  21 117 131 170  31 102 103 200  40 117 195 202  117 130 131 170  42 123 124 211  95 113 198 218  69 180 185 203  25 72 162 174  12 73 192 205  12 79 195 205  143 144 183 200  69 138 180 203  43 128 167 211  23 148 187 206  69 138 203 206  106 107 198 218  44 118 132 133  46 138 196 203  35 105 111 213  33 122 198 215  64 94 202 214  89 92 94 213  35 105 107 112  40 116 195 211  28 195 199 208  25 162 197 204  28 78 188 199  44 133 172 199  52 66 179 207  25 135 174 204  38 120 128 159  47 143 182 194  28 79 195 205  31 103 104 200  3 54 89 202  </DataArray>
<DataArray  type="UInt32"  Name="offsets"  format="ascii">4 8 12 16 20 24 28 32 36 40 44 48 52 56 60 64 68 72 76 80 84 88 92 96 100 104 108 112 116 120 124 128 132 136 140 144 148 152 156 160 164 168 172 176 180 184 188 192 196 200 204 208 212 216 220 224 228 232 236 240 244 248 252 256 260 264 268 272 276 280 284 288 292 296 300 304 308 312 316 320 324 328 332 336 340 344 348 352 356 360 364 368 372 376 380 384 388 392 396 400 404 408 412 416 420 424 428 432 436 440 444 448 452 456 460 464 468 472 476 480 484 488 492 496 500 504 508 512 516 520 524 528 532 536 540 544 548 552 556 560 564 568 572 576 580 584 588 592 596 600 604 608 612 616 620 624 628 632 636 640 644 648 652 656 660 664 668 672 676 680 684 688 692 696 700 704 708 712 716 720 724 728 732 736 740 744 748 752 756 760 764 768 772 776 780 784 788 792 796 800 804 808 812 816 820 824 828 832 836 840 844 848 852 856 860 864 868 872 876 880 884 888 892 896 900 904 908 912 916 920 924 928 932 936 940 944 948 952 956 960 964 968 972 976 980 984 988 992 996 1000 1004 1008 1012 1016 1020 1024 1028 1032 1036 1040 1044 1048 1052 1056 1060 1064 1068 1072 1076 1080 1084 1088 1092 1096 1100 1104 1108 1112 1116 1120 1124 1128 1132 1136 1140 1144 1148 1152 1156 1160 1164 1168 1172 1176 1180 1184 1188 1192 1196 1200 1204 1208 1212 1216 1220 1224 1228 1232 1236 1240 1244 1248 1252 1256 1260 1264 1268 1272 1276 1280 1284 1288 1292 1296 1300 1304 1308 1312 1316 1320 1324 1328 1332 1336 1340 1344 1348 1352 1356 1360 1364 1368 1372 1376 1380 1384 1388 1392 1396 1400 1404 1408 1412 1416 1420 1424 1428 1432 1436 1440 1444 1448 1452 1456 1460 1464 1468 1472 1476 1480 1484 1488 1492 1496 1500 1504 1508 1512 1516 1520 1524 1528 1532 1536 1540 1544 1548 1552 1556 1560 1564 1568 1572 1576 1580 1584 1588 1592 1596 1600 1604 1608 1612 1616 1620 1624 1628 1632 1636 1640 1644 1648 1652 1656 1660 1664 1668 1672 1676 1680 1684 1688 1692 1696 1700 1704 1708 1712 1716 1720 1724 1728 1732 1736 1740 1744 1748 1752 1756 1760 1764 1768 1772 1776 1780 1784 1788 1792 1796 1800 1804 1808 1812 1816 1820 1824 1828 1832 1836 1840 1844 1848 1852 1856 1860 1864 1868 1872 1876 1880 1884 1888 1892 1896 1900 1904 1908 1912 1916 1920 1924 1928 1932 1936 1940 1944 1948 1952 1956 1960 1964 1968 1972 1976 1980 1984 1988 1992 1996 2000 2004 2008 2012 2016 2020 2024 2028 2032 2036 2040 2044 2048 2052 2056 2060 2064 2068 2072 2076 2080 2084 2088 2092 2096 2100 2104 2108 2112 2116 2120 2124 2128 2132 2136 2140 2144 2148 2152 2156 2160 2164 2168 2172 2176 2180 2184 2188 2192 2196 2200 2204 2208 2212 2216 2220 2224 2228 2232 2236 2240 2244 2248 2252 2256 2260 2264 2268 2272 2276 2280 2284 2288 2292 2296 2300 2304 2308 2312 2316 2320 2324 2328 2332 2336 2340 2344 2348 2352 2356 2360 2364 2368 2372 2376 2380 2384 2388 2392 </DataArray>
<DataArray  type="UInt8"  Name="types"  format="ascii">10 10 10 10 10 10 10 10 10 10 10 10 10 10 10 10 10 10 10 10 10 10 10 10 10 10 10 10 10 10 10 10 10 10 10 10 10 10 10 10 10 10 10 10 10 10 10 10 10 10 10 10 10 10 10 10 10 10 10 10 10 10 10 10 10 10 10 10 10 10 10 10 10 10 10 10 10 10 10 10 10 10 10 10 10 10 10 10 10 10 10 10 10 10 10 10 10 10 10 10 10 10 10 10 10 10 10 10 10 10 10 10 10 10 10 10 10 10 10 10 10 10 10 10 10 10 10 10 10 10 10 10 10 10 10 10 10 10 10 10 10 10 10 10 10 10 10 10 10 10 10 10 10 10 10 10 10 10 10 10 10 10 10 10 10 10 10 10 10 10 10 10 10 10 10 10 10 10 10 10 10 10 10 10 10 10 10 10 10 10 10 10 10 10 10 10 10 10 10 10 10 10 10 10 10 10 10 10 10 10 10 10 10 10 10 10 10 10 10 10 10 10 10 10 10 10 10 10 10 10 10 10 10 10 10 10 10 10 10 10 10 10 10 10 10 10 10 10 10 10 10 10 10 10 10 10 10 10 10 10 10 10 10 10 10 10 10 10 10 10 10 10 10 10 10 10 10 10 10 10 10 10 10 10 10 10 10 10 10 10 10 10 10 10 10 10 10 10 10 10 10 10 10 10 10 10 10 10 10 10 10 10 10 10 10 10 10 10 10 10 10 10 10 10 10 10 10 10 10 10 10 10 10 10 10 10 10 10 10 10 10 10 10 10 10 10 10 10 10 10 10 10 10 10 10 10 10 10 10 10 10 10 10 10 10 10 10 10 10 10 10 10 10 10 10 10 10 10 10 10 10 10 10 10 10 10 10 10 10 10 10 10 10 10 10 10 10 10 10 10 10 10 10 10 10 10 10 10 10 10 10 10 10 10 10 10 10 10 10 10 10 10 10 10 10 10 10 10 10 10 10 10 10 10 10 10 10 10 10 10 10 10 10 10 10 10 10 10 10 10 10 10 10 10 10 10 10 10 10 10 10 10 10 10 10 10 10 10 10 10 10 10 10 10 10 10 10 10 10 10 10 10 10 10 10 10 10 10 10 10 10 10 10 10 10 10 10 10 10 10 10 10 10 10 10 10 10 10 10 10 10 10 10 10 10 10 10 10 10 10 10 10 10 10 10 10 10 10 10 10 10 10 10 10 10 10 10 10 10 10 10 10 10 10 10 10 10 10 10 10 10 10 10 10 10 10 10 10 10 10 10 10 10 10 10 10 10 10 10 10 10 10 10 10 10 10 10 10 10 10 10 10 10 10 10 10 10 10 10 10 10 10 10 10 10 10 10 10 </DataArray>
</Cells>
<PointData  Vectors="u"> 
<DataArray  type="Float32"  Name="u"  NumberOfComponents="3" format="ascii">-1.132948e-03 -3.635571e-05 -6.353666e-05  -9.978796e-04 -1.782076e-05 6.792840e-05  -9.967883e-04 -1.982012e-05 1.992776e-05  -9.943974e-04 -3.635571e-05 -6.353666e-05  -9.958019e-04 2.793761e-05 2.217003e-05  -1.194253e-03 3.014458e-05 6.996306e-05  -1.045563e-03 2.882600e-05 2.128164e-05  -1.045750e-03 3.002692e-05 7.008072e-05  -1.132948e-03 -1.697481e-04 -1.301442e-04  -9.941665e-04 -1.696859e-04 -1.302064e-04  -1.191783e-03 2.810470e-05 -1.279971e-04  -1.194360e-03 -1.675255e-04 6.763313e-05  -1.046138e-03 -2.002405e-05 2.013169e-05  -1.046726e-03 -1.878820e-05 6.889583e-05  -1.099087e-03 -1.641847e-04 6.429230e-05  -1.119890e-03 2.999479e-05 4.511284e-05  -9.943245e-04 -7.431800e-05 -1.255744e-04  -1.188611e-03 -7.078043e-05 -1.291119e-04  -1.089524e-03 -1.697380e-04 -1.301544e-04  -9.975886e-04 -1.833563e-05 4.344327e-05  -9.990520e-04 -1.652676e-04 -3.462480e-05  -1.093112e-03 2.445560e-05 -1.243480e-04  -1.119959e-03 3.011848e-05 6.998916e-05  -1.046566e-03 -1.909595e-05 4.420359e-05  -1.020731e-03 2.816591e-05 2.194173e-05  -1.021562e-03 -1.998024e-05 2.008788e-05  -1.193150e-03 2.916891e-05 -2.906127e-05  -9.959946e-04 3.414258e-06 2.169338e-05  -1.045714e-03 4.150760e-06 2.095688e-05  -1.121218e-03 -9.220619e-05 6.731383e-05  -1.022638e-03 -1.799964e-05 6.810728e-05  -1.002213e-03 -8.786592e-05 3.797356e-05  -1.045698e-03 2.975300e-05 4.535463e-05  -9.950501e-04 -2.585223e-06 -4.730714e-05  -1.045916e-03 5.295921e-06 6.981172e-05  -9.949788e-04 2.143290e-05 -4.632527e-05  -1.019917e-03 2.225636e-05 -4.714872e-05  -1.003023e-03 -8.703688e-05 6.214452e-05  -1.189387e-03 -1.686658e-04 -3.122651e-05  -1.194449e-03 -6.863671e-05 6.874445e-05  -1.091824e-03 -7.188213e-05 -1.280102e-04  -1.192236e-03 -6.953446e-05 -3.035790e-05  -9.966778e-04 -8.202718e-05 -4.286518e-05  -1.093851e-03 -1.679143e-04 -3.197809e-05  -1.106510e-03 2.771282e-05 -4.010518e-05  -1.022275e-03 -1.856041e-05 4.366804e-05  -1.120308e-03 -3.164042e-05 6.924806e-05  -1.063439e-03 -8.863283e-05 6.374047e-05  -1.045842e-03 5.013231e-06 4.509441e-05  -1.020886e-03 3.462291e-06 2.164535e-05  -1.058966e-03 -1.553620e-04 5.546961e-05  -1.145273e-03 -1.669082e-04 6.701581e-05  -1.156959e-03 3.013305e-05 5.747459e-05  -1.082793e-03 2.958100e-05 3.302664e-05  -9.943042e-04 -3.839964e-05 -1.114927e-04  -9.940175e-04 -1.208175e-04 -1.290748e-04  -1.177240e-03 -1.200905e-04 -1.298018e-04  -1.191013e-03 -2.160815e-05 -1.282842e-04  -1.127483e-03 -1.697698e-04 -1.301226e-04  -1.043072e-03 -1.697071e-04 -1.301852e-04  -9.978029e-04 -1.796007e-05 5.556770e-05  -9.972462e-04 -1.895138e-05 3.155902e-05  -1.011381e-03 -1.534056e-04 3.513275e-06  -9.952576e-04 -1.685550e-04 -8.133735e-05  -1.043905e-03 1.116307e-05 -1.110554e-04  -1.142105e-03 2.736780e-05 -1.272602e-04  -1.156986e-03 3.016186e-05 6.994578e-05  -1.082949e-03 3.003567e-05 7.007197e-05  -1.046388e-03 -1.950782e-05 3.211546e-05  -1.046677e-03 -1.886838e-05 5.647602e-05  -1.008284e-03 2.799583e-05 2.211181e-05  -1.033148e-03 2.841669e-05 2.169095e-05  -1.009227e-03 -1.989539e-05 2.000303e-05  -1.033878e-03 -1.999464e-05 2.010228e-05  -1.193934e-03 2.983879e-05 2.026885e-05  -1.192057e-03 2.850703e-05 -7.839939e-05  -9.962871e-04 -8.423129e-06 2.103077e-05  -9.958509e-04 1.555765e-05 2.204999e-05  -1.045612e-03 1.643490e-05 2.117274e-05  -1.045902e-03 -7.978352e-06 2.058599e-05  -1.157599e-03 -1.297636e-04 6.737123e-05  -1.084170e-03 -5.545688e-05 6.806452e-05  -1.010277e-03 -1.792191e-05 6.802955e-05  -1.034728e-03 -1.836502e-05 6.847265e-05  -1.013865e-03 -1.136906e-04 3.879822e-05  -9.985241e-04 -5.464972e-05 2.975735e-05  -1.045638e-03 2.936645e-05 3.324119e-05  -1.045735e-03 2.994857e-05 5.765907e-05  -9.958174e-04 -1.022716e-05 -1.466520e-05  -9.945501e-04 -7.017096e-06 -6.787527e-05  -1.045791e-03 1.756442e-05 7.004322e-05  -1.046234e-03 -6.824383e-06 6.943202e-05  -9.945367e-04 4.658818e-06 -6.705118e-05  -9.955107e-04 2.631697e-05 -1.370933e-05  -1.007003e-03 5.430510e-06 -6.782287e-05  -1.032833e-03 2.679866e-05 -1.419102e-05  -1.015749e-03 -1.118649e-04 4.947255e-05  -9.991451e-04 -5.379337e-05 6.640101e-05  -1.177439e-03 -1.693798e-04 -8.051261e-05  -1.193042e-03 -1.679465e-04 1.805415e-05  -1.194322e-03 -1.947867e-05 6.958640e-05  -1.194355e-03 -1.178272e-04 6.793498e-05  -1.002966e-03 -8.711491e-05 4.972255e-05  -9.990964e-04 -5.387031e-05 5.397795e-05  -9.988308e-04 -5.421349e-05 4.182113e-05  -9.950080e-04 9.173159e-06 -4.656552e-05  -9.956616e-04 1.800187e-06 -1.419255e-05  -9.955559e-04 1.393618e-05 -1.382854e-05  -1.119933e-03 3.006918e-05 5.753846e-05  -1.082872e-03 2.982009e-05 4.528754e-05  -1.082931e-03 2.998685e-05 5.762079e-05  -1.007458e-03 2.159133e-05 -4.648369e-05  -1.007979e-03 2.637906e-05 -1.377142e-05  -1.020417e-03 2.656060e-05 -1.395296e-05  -1.043238e-03 -7.333493e-05 -1.265574e-04  -1.090201e-03 -1.205534e-04 -1.293389e-04  -1.139840e-03 -7.119816e-05 -1.286942e-04  -1.092639e-03 -2.416811e-05 -1.257242e-04  -1.192675e-03 -2.030382e-05 -2.958855e-05  -1.189507e-03 -7.035837e-05 -7.953399e-05  -1.190137e-03 -1.189885e-04 -3.090388e-05  -1.193666e-03 -6.898106e-05 1.908870e-05  -9.957696e-04 -4.218840e-05 -4.520396e-05  -9.994449e-04 -8.488485e-05 -2.507515e-06  -9.980769e-04 -1.230934e-04 -3.929893e-05  -9.951645e-04 -7.855745e-05 -8.383491e-05  -1.047417e-03 -1.660132e-04 -3.387912e-05  -1.097512e-03 -1.653100e-04 1.541769e-05  -1.140566e-03 -1.684355e-04 -3.145691e-05  -1.090952e-03 -1.690054e-04 -8.088692e-05  -1.063369e-03 2.529403e-05 -4.393639e-05  -1.099587e-03 2.614456e-05 -8.228693e-05  -1.149651e-03 2.865658e-05 -3.479894e-05  -1.113348e-03 2.909872e-05 2.258918e-06  -1.009986e-03 -1.840970e-05 4.351734e-05  -1.021986e-03 -1.910839e-05 3.171603e-05  -1.034526e-03 -1.871661e-05 4.382425e-05  -1.022512e-03 -1.818608e-05 5.579371e-05  -1.083286e-03 -1.313884e-05 6.949648e-05  -1.120070e-03 -9.257497e-07 6.978339e-05  -1.157348e-03 -5.005153e-05 6.890917e-05  -1.120691e-03 -6.199417e-05 6.835181e-05  -1.082639e-03 -1.249012e-04 6.250888e-05  -1.034286e-03 -8.692782e-05 6.203546e-05  -1.042207e-03 -5.423923e-05 6.684686e-05  -1.092109e-03 -9.058892e-05 6.569655e-05  -1.045740e-03 1.729088e-05 4.531676e-05  -1.045938e-03 5.249173e-06 5.735847e-05  -1.046126e-03 -7.117373e-06 4.472501e-05  -1.045781e-03 4.635605e-06 3.297203e-05  -1.021144e-03 -8.391387e-06 2.099903e-05  -1.008496e-03 3.518876e-06 2.158876e-05  -1.020765e-03 1.571228e-05 2.189536e-05  -1.033298e-03 3.718106e-06 2.138953e-05  -1.043004e-03 -1.208815e-04 -1.290108e-04  -1.135502e-03 -1.203206e-04 -1.295717e-04  -1.043704e-03 -2.766031e-05 -1.222320e-04  -1.141487e-03 -2.232637e-05 -1.275660e-04  -1.191354e-03 -2.116022e-05 -7.873214e-05  -1.185439e-03 -1.196867e-04 -8.020568e-05  -1.193722e-03 -1.979557e-05 1.990321e-05  -1.193203e-03 -1.182742e-04 1.838185e-05  -9.968805e-04 -4.798657e-05 -8.155794e-06  -1.003449e-03 -1.208222e-04 2.179807e-06  -9.948357e-04 -3.747314e-05 -8.116922e-05  -9.951089e-04 -1.227587e-04 -8.338362e-05  -1.053040e-03 -1.609341e-04 1.104173e-05  -1.144051e-03 -1.674696e-04 1.757729e-05  -1.044367e-03 -1.685279e-04 -8.136445e-05  -1.135710e-03 -1.692456e-04 -8.064675e-05  -1.053484e-03 2.108266e-05 -8.035003e-05  -1.145682e-03 2.793100e-05 -8.094836e-05  -1.073148e-03 2.825622e-05 -6.273581e-06  -1.153492e-03 2.958229e-05 1.115035e-05  -1.009662e-03 -1.902507e-05 3.163271e-05  -1.034272e-03 -1.920224e-05 3.180988e-05  -1.010228e-03 -1.801857e-05 5.562621e-05  -1.034669e-03 -1.845457e-05 5.606221e-05  -1.083056e-03 8.345246e-06 6.988739e-05  -1.157102e-03 -1.013252e-05 6.961516e-05  -1.083685e-03 -3.439015e-05 6.887279e-05  -1.157492e-03 -8.987279e-05 6.810543e-05  -1.048545e-03 -1.191660e-04 5.677365e-05  -1.020764e-03 -5.395406e-05 6.656170e-05  -1.119038e-03 -1.283543e-04 6.596195e-05  -1.063253e-03 -5.482251e-05 6.743014e-05  -1.045779e-03 1.750293e-05 5.760471e-05  -1.046220e-03 -6.881291e-06 5.698893e-05  -1.045683e-03 1.691956e-05 3.318807e-05  -1.045986e-03 -7.507534e-06 3.261517e-05  -1.008771e-03 -8.409138e-06 2.101678e-05  -1.008336e-03 1.561953e-05 2.198810e-05  -1.033497e-03 -8.315364e-06 2.092300e-05  -1.033186e-03 1.596467e-05 2.164297e-05  -1.051953e-03 -6.283634e-05 2.414187e-05  -1.060145e-03 -1.596683e-05 -2.415993e-05  -1.090491e-03 -2.450198e-05 2.617212e-05  -1.039870e-03 -4.844017e-05 -1.161939e-05  -1.026508e-03 -5.463841e-06 -3.192852e-05  -1.075859e-03 -2.195655e-06 6.853993e-06  -1.026038e-03 -7.174687e-05 3.435451e-05  -1.101443e-03 3.673872e-06 3.883647e-05  -1.030299e-03 -1.402368e-05 -8.370518e-05  -1.068256e-03 -4.053341e-05 3.758895e-05  -1.028433e-03 -4.793941e-05 1.441654e-05  -1.035266e-03 -1.546660e-05 -7.915466e-06  -1.073896e-03 -1.123005e-06 4.420374e-05  -1.142396e-03 9.992608e-06 6.980253e-05  -1.050790e-03 2.802443e-05 -5.729873e-07  -1.054762e-03 -1.356142e-04 3.572182e-05  -1.028530e-03 -1.043487e-04 5.680009e-05  -1.104312e-03 -1.005967e-04 -2.814224e-07  -1.041363e-03 -4.482875e-05 4.220509e-05  -9.947419e-04 1.439458e-05 -5.803694e-05  -1.029623e-03 1.895466e-05 -6.806582e-05  -9.947653e-04 -1.586689e-05 -6.840047e-05  -9.964445e-04 -2.631727e-05 -1.700088e-06  -1.013467e-03 8.908268e-07 -6.139309e-05  -1.026860e-03 7.132837e-06 -1.648198e-06  -1.050323e-03 -1.350496e-04 5.195414e-05  -1.048921e-03 -9.855153e-05 1.740917e-05  -1.037607e-03 -1.167342e-04 4.786562e-05  -1.065935e-03 -2.374522e-06 6.966966e-05  </DataArray> 
</PointData> 
</Piece>
</UnstructuredGrid>
</VTKFile>